LAMMPS data file via write_data, version 2 Aug 2023, timestep = 0, units = lj

1000 atoms
1 atom types

0.0 30.18000030517578 xlo xhi
0.0 30.18000030517578 ylo yhi
0.0 30.18000030517578 zlo zhi

Masses

1 1.

Atoms # sph
#atom-id atom-type rho esph cv entropy x y z ix iy iz
1 1 0.0 0.0 1.0 -0.00019801089365500957 27.483489990234375 10.10426139831543 29.643001556396484 0 0 0
2 1 0.0 0.0 1.0 -0.00019548847922123969 28.653547286987305 28.0935115814209 1.5549211502075195 0 0 0
3 1 0.0 0.0 1.0 -0.00020985424635000527 27.859779357910156 26.783212661743164 10.759906768798828 0 0 0
4 1 0.0 0.0 1.0 -0.0001977851934498176 3.195763349533081 20.976388931274414 17.603490829467773 0 0 0
5 1 0.0 0.0 1.0 -0.00018615039880387485 7.323103904724121 5.365487098693848 30.083585739135742 0 0 0
6 1 0.0 0.0 1.0 -0.00020985830633435398 9.272050857543945 16.013355255126953 21.412778854370117 0 0 0
7 1 0.0 0.0 1.0 -0.00019407231593504548 18.24500846862793 15.05386734008789 11.409032821655273 0 0 0
8 1 0.0 0.0 1.0 -0.00020455606863833964 18.066925048828125 9.82008171081543 21.878795623779297 0 0 0
9 1 0.0 0.0 1.0 -0.0002004677808145061 3.8077964782714844 16.037322998046875 1.7230753898620605 0 0 0
10 1 0.0 0.0 1.0 -0.0002205470809713006 17.107759475708008 5.251766681671143 20.11870002746582 0 0 0
11 1 0.0 0.0 1.0 -0.00023093214258551598 28.4423828125 10.11439323425293 18.841108322143555 0 0 0
12 1 0.0 0.0 1.0 -0.00020238422439433634 13.932857513427734 2.9236228466033936 4.29087495803833 0 0 0
13 1 0.0 0.0 1.0 -0.00041287567000836134 16.717960357666016 2.9451844692230225 4.516912460327148 0 0 0
14 1 0.0 0.0 1.0 -0.00021528720390051603 13.04782485961914 6.913791179656982 7.08678674697876 0 0 0
15 1 0.0 0.0 1.0 -0.00037370785139501095 17.34820556640625 2.3033759593963623 22.078937530517578 0 0 0
16 1 0.0 0.0 1.0 -0.00044357223669067025 17.6163387298584 11.997455596923828 8.654988288879395 0 0 0
17 1 0.0 0.0 1.0 -0.00023736647563055158 26.96784210205078 5.28541374206543 12.209972381591797 0 0 0
18 1 0.0 0.0 1.0 -0.00020234596740920097 19.181255340576172 26.762784957885742 29.597320556640625 0 0 0
19 1 0.0 0.0 1.0 -0.0002128731575794518 15.417197227478027 21.533245086669922 20.873367309570312 0 0 0
20 1 0.0 0.0 1.0 -0.00019445705402176827 6.371626377105713 9.280837059020996 12.795642852783203 0 0 0
21 1 0.0 0.0 1.0 -0.00021404340805020183 23.86556625366211 16.387887954711914 8.548091888427734 0 0 0
22 1 0.0 0.0 1.0 -0.00020067387958988547 10.981119155883789 8.968781471252441 19.386411666870117 0 0 0
23 1 0.0 0.0 1.0 -0.00017202080925926566 4.1380534172058105 13.546113014221191 21.781686782836914 0 0 0
24 1 0.0 0.0 1.0 -0.00019207516743335873 1.404253602027893 0.5305156707763672 13.27660846710205 0 0 0
25 1 0.0 0.0 1.0 -0.00045656057773157954 19.216394424438477 13.74714183807373 20.314672470092773 0 0 0
26 1 0.0 0.0 1.0 -0.00019484876247588545 2.3733484745025635 21.086761474609375 1.466681718826294 0 0 0
27 1 0.0 0.0 1.0 -0.00021623018255922943 23.639659881591797 22.244760513305664 28.024595260620117 0 0 0
28 1 0.0 0.0 1.0 -0.00019783266179729253 20.304363250732422 10.18896770477295 4.653980731964111 0 0 0
29 1 0.0 0.0 1.0 -0.00022325408644974232 23.07265853881836 29.546716690063477 9.96138858795166 0 0 0
30 1 0.0 0.0 1.0 -0.0002163195313187316 8.320806503295898 23.862850189208984 0.9076272249221802 0 0 0
31 1 0.0 0.0 1.0 -0.0003779501421377063 13.591123580932617 23.776105880737305 21.816335678100586 0 0 0
32 1 0.0 0.0 1.0 -0.00019767717458307743 10.326416969299316 21.092348098754883 4.828630447387695 0 0 0
33 1 0.0 0.0 1.0 -0.00021956325508654118 0.7719625234603882 27.153676986694336 20.053955078125 0 0 0
34 1 0.0 0.0 1.0 -0.0003766993177123368 26.74884796142578 6.6096882820129395 26.634374618530273 0 0 0
35 1 0.0 0.0 1.0 -0.0004183290293440223 14.16307544708252 9.145929336547852 8.900862693786621 0 0 0
36 1 0.0 0.0 1.0 -0.0003840109275188297 24.713287353515625 19.059154510498047 26.88406753540039 0 0 0
37 1 0.0 0.0 1.0 -0.00021739135263487697 15.752828598022461 18.834768295288086 28.098628997802734 0 0 0
38 1 0.0 0.0 1.0 -0.00036400786484591663 27.2049617767334 6.785454273223877 23.090068817138672 0 0 0
39 1 0.0 0.0 1.0 -0.0004128502041567117 13.788525581359863 21.714893341064453 25.662073135375977 0 0 0
40 1 0.0 0.0 1.0 -0.00034455733839422464 0.07925634831190109 4.141427516937256 9.891077041625977 0 0 0
41 1 0.0 0.0 1.0 -0.0003734241472557187 7.895117282867432 21.954116821289062 2.1744542121887207 0 0 0
42 1 0.0 0.0 1.0 -0.00019596851780079305 28.25252914428711 18.304359436035156 16.61737632751465 0 0 0
43 1 0.0 0.0 1.0 -0.00040756043745204806 2.5177690982818604 3.784022092819214 8.800915718078613 0 0 0
44 1 0.0 0.0 1.0 -0.00033291857107542455 4.809030532836914 3.336822509765625 7.5341796875 0 0 0
45 1 0.0 0.0 1.0 -0.00018900874420069158 21.85938262939453 9.489313125610352 15.766664505004883 0 0 0
46 1 0.0 0.0 1.0 -0.000191793471458368 9.933494567871094 26.662874221801758 10.295137405395508 0 0 0
47 1 0.0 0.0 1.0 -0.0004078933852724731 8.441691398620605 3.329179048538208 29.97336196899414 0 0 0
48 1 0.0 0.0 1.0 -0.00018493497918825597 27.921079635620117 0.7807050943374634 23.190988540649414 0 0 0
49 1 0.0 0.0 1.0 -0.0004039750783704221 26.424596786499023 19.483888626098633 12.703577995300293 0 0 0
50 1 0.0 0.0 1.0 -0.00025466782972216606 15.707840919494629 17.21921157836914 7.282503604888916 0 0 0
51 1 0.0 0.0 1.0 -0.00038711412344127893 17.13553237915039 19.335527420043945 24.157852172851562 0 0 0
52 1 0.0 0.0 1.0 -0.0003643641248345375 25.9759464263916 24.038572311401367 26.812047958374023 0 0 0
53 1 0.0 0.0 1.0 -0.0004302685265429318 12.502659797668457 19.04886245727539 4.806197643280029 0 0 0
54 1 0.0 0.0 1.0 -0.00019918174075428396 16.08011817932129 26.8372859954834 14.165657043457031 0 0 0
55 1 0.0 0.0 1.0 -0.00033596582943573594 22.36575698852539 9.391860961914062 7.604569911956787 0 0 0
56 1 0.0 0.0 1.0 -0.00018187565729022026 21.00387954711914 26.91577911376953 5.481434345245361 0 0 0
57 1 0.0 0.0 1.0 -0.00038273853715509176 17.109607696533203 6.150702953338623 8.36739444732666 0 0 0
58 1 0.0 0.0 1.0 -0.00019786812481470406 22.185739517211914 1.836271047592163 18.24751091003418 0 0 0
59 1 0.0 0.0 1.0 -0.0003903690376318991 26.933732986450195 5.445369720458984 14.56960391998291 0 0 0
60 1 0.0 0.0 1.0 -0.0001893376902444288 20.99698829650879 1.634014368057251 29.260107040405273 0 0 0
61 1 0.0 0.0 1.0 -0.0004162808181717992 21.704063415527344 24.698144912719727 5.992191314697266 0 0 0
62 1 0.0 0.0 1.0 -0.00017099973047152162 0.09965677559375763 15.031454086303711 27.052827835083008 0 0 0
63 1 0.0 0.0 1.0 -0.000388677348382771 15.191178321838379 25.515399932861328 9.704360961914062 0 0 0
64 1 0.0 0.0 1.0 -0.00018059767899103463 8.468503952026367 1.2630138397216797 10.933070182800293 0 0 0
65 1 0.0 0.0 1.0 -0.00041949699516408145 4.804731845855713 21.628019332885742 14.2149076461792 0 0 0
66 1 0.0 0.0 1.0 -0.00020855051116086543 2.8136088848114014 26.44534683227539 6.08213996887207 0 0 0
67 1 0.0 0.0 1.0 -0.00041769471135921776 2.869941234588623 7.463525772094727 11.398700714111328 0 0 0
68 1 0.0 0.0 1.0 -0.000457271613413468 25.510055541992188 10.436226844787598 25.690855026245117 0 0 0
69 1 0.0 0.0 1.0 -0.0004041392239741981 0.9246864318847656 28.684642791748047 7.464282989501953 0 0 0
70 1 0.0 0.0 1.0 -0.0004548051510937512 24.12207794189453 11.809359550476074 16.227487564086914 0 0 0
71 1 0.0 0.0 1.0 -0.00037987987161614 28.90974235534668 18.211116790771484 18.860748291015625 0 0 0
72 1 0.0 0.0 1.0 -0.0004352157120592892 12.0619535446167 6.1862101554870605 1.5328644514083862 0 0 0
73 1 0.0 0.0 1.0 -0.00037683756090700626 12.40715217590332 13.39351749420166 22.409114837646484 0 0 0
74 1 0.0 0.0 1.0 -0.0004264965537004173 13.761781692504883 24.930171966552734 12.450185775756836 0 0 0
75 1 0.0 0.0 1.0 -0.0003874801332131028 12.330606460571289 24.624643325805664 8.041441917419434 0 0 0
76 1 0.0 0.0 1.0 -0.00038829533150419593 6.470785140991211 15.948692321777344 21.090383529663086 0 0 0
77 1 0.0 0.0 1.0 -0.00019482197239995003 1.969943881034851 1.3859952688217163 25.643247604370117 0 0 0
78 1 0.0 0.0 1.0 -0.00020150009368080646 15.65211296081543 16.18282127380371 2.5309572219848633 0 0 0
79 1 0.0 0.0 1.0 -0.00043682512477971613 14.177952766418457 17.750370025634766 1.1765143871307373 0 0 0
80 1 0.0 0.0 1.0 -0.00017372798174619675 5.776851654052734 2.482971668243408 22.546171188354492 0 0 0
81 1 0.0 0.0 1.0 -0.00024579657474532723 23.60190773010254 21.531328201293945 18.84492301940918 0 0 0
82 1 0.0 0.0 1.0 -0.00020225060870870948 17.70937728881836 6.34312105178833 13.078150749206543 0 0 0
83 1 0.0 0.0 1.0 -0.0003873357782140374 3.5465574264526367 1.4908318519592285 7.0115790367126465 0 0 0
84 1 0.0 0.0 1.0 -0.0003776263911277056 20.890514373779297 22.93619728088379 29.708473205566406 0 0 0
85 1 0.0 0.0 1.0 -0.00021202706557232887 12.383573532104492 9.444302558898926 13.767048835754395 0 0 0
86 1 0.0 0.0 1.0 -0.0005203617038205266 22.905582427978516 28.23526382446289 29.93405532836914 0 0 0
87 1 0.0 0.0 1.0 -0.0002038812090177089 1.073319673538208 21.824216842651367 22.078615188598633 0 0 0
88 1 0.0 0.0 1.0 -0.0002192477259086445 12.201457023620605 26.972976684570312 1.0492866039276123 0 0 0
89 1 0.0 0.0 1.0 -0.0003712933394126594 10.239842414855957 14.67387866973877 23.094491958618164 0 0 0
90 1 0.0 0.0 1.0 -0.0003916436107829213 4.156844139099121 27.55850601196289 3.337588310241699 0 0 0
91 1 0.0 0.0 1.0 -0.0003841015277430415 20.407779693603516 28.018129348754883 2.1518187522888184 0 0 0
92 1 0.0 0.0 1.0 -0.0003638935449998826 9.976336479187012 22.3900089263916 24.6267032623291 0 0 0
93 1 0.0 0.0 1.0 -0.0004053623997606337 16.902629852294922 28.335433959960938 23.431604385375977 0 0 0
94 1 0.0 0.0 1.0 -0.00038922467501834035 20.237632751464844 5.292129993438721 4.369868278503418 0 0 0
95 1 0.0 0.0 1.0 -0.0003943729097954929 16.433475494384766 20.228120803833008 26.520355224609375 0 0 0
96 1 0.0 0.0 1.0 -0.0004030702402815223 29.383272171020508 9.314757347106934 9.468010902404785 0 0 0
97 1 0.0 0.0 1.0 -0.00035733607364818454 19.898040771484375 1.8067399263381958 4.797040939331055 0 0 0
98 1 0.0 0.0 1.0 -0.00034763565054163337 13.086249351501465 18.929384231567383 18.776308059692383 0 0 0
99 1 0.0 0.0 1.0 -0.00021511154773179442 11.331843376159668 18.487184524536133 11.008288383483887 0 0 0
100 1 0.0 0.0 1.0 -0.00037608647835440934 12.909886360168457 12.435196876525879 1.8476686477661133 0 0 0
101 1 0.0 0.0 1.0 -0.00019130128202959895 28.726512908935547 17.044811248779297 3.5959835052490234 0 0 0
102 1 0.0 0.0 1.0 -0.00040332775097340345 17.333803176879883 1.7002042531967163 25.05215072631836 0 0 0
103 1 0.0 0.0 1.0 -0.0004304112517274916 10.304906845092773 21.729385375976562 27.786134719848633 0 0 0
104 1 0.0 0.0 1.0 -0.0001818664459278807 26.43550682067871 21.794628143310547 7.649806499481201 0 0 0
105 1 0.0 0.0 1.0 -0.0004114210605621338 3.4991044998168945 18.810550689697266 13.43940544128418 0 0 0
106 1 0.0 0.0 1.0 -0.0004044534871354699 8.967835426330566 3.4913442134857178 9.104079246520996 0 0 0
107 1 0.0 0.0 1.0 -0.0003565284423530102 29.838571548461914 25.987939834594727 14.3441801071167 0 0 0
108 1 0.0 0.0 1.0 -0.00020258557924535125 6.15292501449585 15.533185005187988 9.245193481445312 0 0 0
109 1 0.0 0.0 1.0 -0.00040575105231255293 8.6968355178833 5.975335121154785 18.594738006591797 0 0 0
110 1 0.0 0.0 1.0 -0.00045875832438468933 7.857826232910156 28.9844970703125 7.070259094238281 0 0 0
111 1 0.0 0.0 1.0 -0.0004417853197082877 0.4032263159751892 16.70480728149414 23.347736358642578 0 0 0
112 1 0.0 0.0 1.0 -0.00019722559954971075 5.032721996307373 20.600448608398438 6.792923450469971 0 0 0
113 1 0.0 0.0 1.0 -0.0004902733489871025 27.9067325592041 1.0727307796478271 11.925790786743164 0 0 0
114 1 0.0 0.0 1.0 -0.0004105364787392318 10.808948516845703 12.575127601623535 29.802156448364258 0 0 0
115 1 0.0 0.0 1.0 -0.00034971453715115786 17.55073356628418 26.053056716918945 22.271265029907227 0 0 0
116 1 0.0 0.0 1.0 -0.00018660670320969075 7.782323837280273 27.57912826538086 17.983665466308594 0 0 0
117 1 0.0 0.0 1.0 -0.0003991813282482326 28.935245513916016 24.323646545410156 19.426828384399414 0 0 0
118 1 0.0 0.0 1.0 -0.00038599700201302767 19.456151962280273 29.4354305267334 10.708598136901855 0 0 0
119 1 0.0 0.0 1.0 -0.00040833413368090987 13.907002449035645 21.062240600585938 11.872786521911621 0 0 0
120 1 0.0 0.0 1.0 -0.00038356470759026706 13.44489860534668 10.743938446044922 6.4363112449646 0 0 0
121 1 0.0 0.0 1.0 -0.000423420628067106 9.96485424041748 10.490500450134277 2.275602340698242 0 0 0
122 1 0.0 0.0 1.0 -0.0004780000017490238 29.080398559570312 19.334239959716797 2.5094306468963623 0 0 0
123 1 0.0 0.0 1.0 -0.00038755478453822434 14.54005241394043 7.2085161209106445 11.007781028747559 0 0 0
124 1 0.0 0.0 1.0 -0.00040308875031769276 12.867984771728516 2.344712018966675 22.673009872436523 0 0 0
125 1 0.0 0.0 1.0 -0.00036101258592680097 12.582010269165039 24.762435913085938 0.07560430467128754 0 0 0
126 1 0.0 0.0 1.0 -0.0004087149281986058 3.121596336364746 11.829296112060547 19.31985092163086 0 0 0
127 1 0.0 0.0 1.0 -0.0003986825468018651 2.099234104156494 1.4083991050720215 9.842850685119629 0 0 0
128 1 0.0 0.0 1.0 -0.00039959169225767255 12.203533172607422 1.503706693649292 12.138961791992188 0 0 0
129 1 0.0 0.0 1.0 -0.0004057970945723355 2.7364511489868164 27.395875930786133 16.394798278808594 0 0 0
130 1 0.0 0.0 1.0 -0.0003769297618418932 3.9795916080474854 6.117829322814941 29.273725509643555 0 0 0
131 1 0.0 0.0 1.0 -0.00018534147238824517 9.156100273132324 28.93891143798828 25.582984924316406 0 0 0
132 1 0.0 0.0 1.0 -0.0003904920304194093 28.9364013671875 13.578404426574707 21.260149002075195 0 0 0
133 1 0.0 0.0 1.0 -0.0004464518278837204 18.29469108581543 5.0350446701049805 29.452234268188477 0 0 0
134 1 0.0 0.0 1.0 -0.00042493018554523587 21.51934051513672 28.627655029296875 15.427854537963867 0 0 0
135 1 0.0 0.0 1.0 -0.0003420035936869681 19.56782341003418 4.951279640197754 9.894124031066895 0 0 0
136 1 0.0 0.0 1.0 -0.00020107965974602848 28.920167922973633 12.371309280395508 14.577912330627441 0 0 0
137 1 0.0 0.0 1.0 -0.00046598975313827395 9.726513862609863 18.639263153076172 1.6820939779281616 0 0 0
138 1 0.0 0.0 1.0 -0.00037821708247065544 22.47324562072754 5.153461933135986 27.812267303466797 0 0 0
139 1 0.0 0.0 1.0 -0.00034930239780806005 12.92238998413086 11.330683708190918 29.174793243408203 0 0 0
140 1 0.0 0.0 1.0 -0.0003815108211711049 6.301219463348389 2.974203109741211 9.352702140808105 0 0 0
141 1 0.0 0.0 1.0 -0.00035952916368842125 24.397260665893555 19.268592834472656 15.847455978393555 0 0 0
142 1 0.0 0.0 1.0 -0.0003808883484452963 9.692193984985352 15.251260757446289 9.199014663696289 0 0 0
143 1 0.0 0.0 1.0 -0.00039397322689183056 25.872081756591797 28.80668830871582 6.449456214904785 0 0 0
144 1 0.0 0.0 1.0 -0.00037899205926805735 19.633651733398438 24.84188461303711 7.44541072845459 0 0 0
145 1 0.0 0.0 1.0 -0.000367510539945215 8.741851806640625 8.061163902282715 5.963461875915527 0 0 0
146 1 0.0 0.0 1.0 -0.00047550606541335583 0.12698505818843842 21.63783836364746 28.322689056396484 0 0 0
147 1 0.0 0.0 1.0 -0.000390487490221858 20.459545135498047 22.8319149017334 27.466886520385742 0 0 0
148 1 0.0 0.0 1.0 -0.00042442139238119125 2.6763718128204346 13.583044052124023 8.696324348449707 0 0 0
149 1 0.0 0.0 1.0 -0.000347946654073894 27.557661056518555 19.334497451782227 6.83991813659668 0 0 0
150 1 0.0 0.0 1.0 -0.00041971023892983794 27.150558471679688 28.004756927490234 18.838001251220703 0 0 0
151 1 0.0 0.0 1.0 -0.0003854184760712087 22.094587326049805 8.993504524230957 12.398354530334473 0 0 0
152 1 0.0 0.0 1.0 -0.00042635214049369097 16.41754722595215 24.15176010131836 27.800630569458008 0 0 0
153 1 0.0 0.0 1.0 -0.0004087628039997071 26.858417510986328 7.173192024230957 20.9185791015625 0 0 0
154 1 0.0 0.0 1.0 -0.0003709816373884678 11.723154067993164 16.008790969848633 5.040194988250732 0 0 0
155 1 0.0 0.0 1.0 -0.0004602232074830681 25.474037170410156 8.662219047546387 27.772415161132812 0 0 0
156 1 0.0 0.0 1.0 -0.0003968403907492757 2.947183847427368 7.940352916717529 27.73056983947754 0 0 0
157 1 0.0 0.0 1.0 -0.00040500937029719353 22.420196533203125 18.952743530273438 19.024980545043945 0 0 0
158 1 0.0 0.0 1.0 -0.000395897775888443 25.93364906311035 7.273553371429443 17.613800048828125 0 0 0
159 1 0.0 0.0 1.0 -0.00038285250775516033 29.70118522644043 10.607274055480957 3.199387311935425 0 0 0
160 1 0.0 0.0 1.0 -0.00035233935341238976 21.5245304107666 25.29380989074707 27.77362823486328 0 0 0
161 1 0.0 0.0 1.0 -0.0003694405313581228 27.50459098815918 2.595935583114624 19.789806365966797 0 0 0
162 1 0.0 0.0 1.0 -0.0003981699701398611 23.680566787719727 15.616548538208008 22.056255340576172 0 0 0
163 1 0.0 0.0 1.0 -0.00041001784848049283 28.72533416748047 27.410953521728516 28.376895904541016 0 0 0
164 1 0.0 0.0 1.0 -0.00038382838829420507 26.144624710083008 22.07271385192871 3.549577236175537 0 0 0
165 1 0.0 0.0 1.0 -0.0003427336923778057 22.065921783447266 10.119871139526367 20.372743606567383 0 0 0
166 1 0.0 0.0 1.0 -0.00039763300446793437 10.688364028930664 7.975207805633545 9.936602592468262 0 0 0
167 1 0.0 0.0 1.0 -0.0004336219863034785 18.543426513671875 20.681325912475586 7.980396270751953 0 0 0
168 1 0.0 0.0 1.0 -0.00042116662370972335 6.598507404327393 19.792612075805664 10.483057975769043 0 0 0
169 1 0.0 0.0 1.0 -0.0004124444676563144 28.087955474853516 28.873716354370117 16.32562255859375 0 0 0
170 1 0.0 0.0 1.0 -0.0004114297335036099 29.037195205688477 17.53110122680664 28.07394790649414 0 0 0
171 1 0.0 0.0 1.0 -0.0003921046736650169 4.718311309814453 17.79995346069336 19.651933670043945 0 0 0
172 1 0.0 0.0 1.0 -0.00042146036867052317 0.12289902567863464 13.323920249938965 29.704519271850586 0 0 0
173 1 0.0 0.0 1.0 -0.0003561102203093469 6.293004989624023 15.81186294555664 15.079764366149902 0 0 0
174 1 0.0 0.0 1.0 -0.00038337678415700793 26.546178817749023 10.702102661132812 27.61825180053711 0 0 0
175 1 0.0 0.0 1.0 -0.0003921570023521781 11.543508529663086 14.70588207244873 17.74526596069336 0 0 0
176 1 0.0 0.0 1.0 -0.0003689532168209553 5.931572437286377 7.40053129196167 8.948814392089844 0 0 0
177 1 0.0 0.0 1.0 -0.00044359039748087525 15.782440185546875 3.459134817123413 10.999591827392578 0 0 0
178 1 0.0 0.0 1.0 -0.0004052824224345386 17.635499954223633 2.0522959232330322 27.377283096313477 0 0 0
179 1 0.0 0.0 1.0 -0.0004075865726917982 5.7295942306518555 23.087522506713867 7.727872371673584 0 0 0
180 1 0.0 0.0 1.0 -0.00035718645085580647 17.812280654907227 15.588544845581055 4.094565391540527 0 0 0
181 1 0.0 0.0 1.0 -0.00046634319005534053 6.958275318145752 0.23599563539028168 12.798699378967285 0 0 0
182 1 0.0 0.0 1.0 -0.00041237130062654614 14.872652053833008 13.895045280456543 1.1912256479263306 0 0 0
183 1 0.0 0.0 1.0 -0.00041234417585656047 11.588937759399414 23.73952865600586 10.668264389038086 0 0 0
184 1 0.0 0.0 1.0 -0.00032348293461836874 15.53329086303711 11.011967658996582 14.38369369506836 0 0 0
185 1 0.0 0.0 1.0 -0.00039133208338171244 10.113485336303711 3.591101884841919 25.83121109008789 0 0 0
186 1 0.0 0.0 1.0 -0.0003900612937286496 5.8805928230285645 25.805667877197266 29.275365829467773 0 0 0
187 1 0.0 0.0 1.0 -0.00037913944106549025 4.102631568908691 21.810596466064453 4.427209854125977 0 0 0
188 1 0.0 0.0 1.0 -0.00044377485755831003 14.416234016418457 8.600357055664062 14.183541297912598 0 0 0
189 1 0.0 0.0 1.0 -0.00045221549225971103 21.141843795776367 21.83512306213379 24.286846160888672 0 0 0
190 1 0.0 0.0 1.0 -0.0003521211910992861 9.727537155151367 5.652483940124512 24.834280014038086 0 0 0
191 1 0.0 0.0 1.0 -0.0004374164273031056 0.3515448570251465 23.314361572265625 17.550416946411133 0 0 0
192 1 0.0 0.0 1.0 -0.0004414499271661043 8.513578414916992 4.33072566986084 22.523818969726562 0 0 0
193 1 0.0 0.0 1.0 -0.0003834647359326482 10.088213920593262 1.3650041818618774 4.826213836669922 0 0 0
194 1 0.0 0.0 1.0 -0.0004138886579312384 2.3789658546447754 24.95890235900879 12.44954776763916 0 0 0
195 1 0.0 0.0 1.0 -0.00040347030153498054 1.612803339958191 4.745838165283203 27.7459659576416 0 0 0
196 1 0.0 0.0 1.0 -0.0003728469891939312 15.27169132232666 20.59143829345703 6.240651607513428 0 0 0
197 1 0.0 0.0 1.0 -0.0003552702837623656 26.974254608154297 22.512529373168945 1.405274748802185 0 0 0
198 1 0.0 0.0 1.0 -0.0004132955800741911 17.69255828857422 25.47381591796875 4.944433689117432 0 0 0
199 1 0.0 0.0 1.0 -0.0004215919179841876 15.55599308013916 0.2360137403011322 13.102924346923828 0 0 0
200 1 0.0 0.0 1.0 -0.00041482370579615235 27.568506240844727 20.524232864379883 23.56576919555664 0 0 0
201 1 0.0 0.0 1.0 -0.00038963666884228587 13.541458129882812 3.898841381072998 7.045289516448975 0 0 0
202 1 0.0 0.0 1.0 -0.0003772699856199324 14.044686317443848 11.262076377868652 22.935672760009766 0 0 0
203 1 0.0 0.0 1.0 -0.0004728600033558905 20.894203186035156 24.587154388427734 11.743765830993652 0 0 0
204 1 0.0 0.0 1.0 -0.0003985162766184658 24.046417236328125 7.764222145080566 25.139347076416016 0 0 0
205 1 0.0 0.0 1.0 -0.000431794673204422 5.696480751037598 9.79113483428955 18.23652458190918 0 0 0
206 1 0.0 0.0 1.0 -0.0003673145838547498 23.359088897705078 14.763442993164062 19.41203498840332 0 0 0
207 1 0.0 0.0 1.0 -0.00021585033391602337 12.257336616516113 0.3817428648471832 17.79251480102539 0 0 0
208 1 0.0 0.0 1.0 -0.00043702428229153156 15.343571662902832 21.490001678466797 18.393753051757812 0 0 0
209 1 0.0 0.0 1.0 -0.00038952589966356754 10.079025268554688 28.020156860351562 6.064428806304932 0 0 0
210 1 0.0 0.0 1.0 -0.0003682182286866009 24.00946617126465 20.510873794555664 10.297760009765625 0 0 0
211 1 0.0 0.0 1.0 -0.0003921705938410014 27.292205810546875 24.477506637573242 9.866991996765137 0 0 0
212 1 0.0 0.0 1.0 -0.00036340003134682775 25.607118606567383 12.048501014709473 21.53266716003418 0 0 0
213 1 0.0 0.0 1.0 -0.00042918065446428955 11.166263580322266 12.15172004699707 5.902903079986572 0 0 0
214 1 0.0 0.0 1.0 -0.00036497547989711165 8.435487747192383 19.786561965942383 29.495649337768555 0 0 0
215 1 0.0 0.0 1.0 -0.00037638877984136343 26.879648208618164 1.8284565210342407 7.62907075881958 0 0 0
216 1 0.0 0.0 1.0 -0.0003815308155026287 17.154767990112305 10.630417823791504 30.00499153137207 0 0 0
217 1 0.0 0.0 1.0 -0.0004262870061211288 16.26390266418457 7.137658596038818 27.30574607849121 0 0 0
218 1 0.0 0.0 1.0 -0.00043246604036539793 13.282761573791504 1.9075109958648682 8.378196716308594 0 0 0
219 1 0.0 0.0 1.0 -0.00043971656123176217 1.4068058729171753 13.247001647949219 4.5015459060668945 0 0 0
220 1 0.0 0.0 1.0 -0.00039371836464852095 26.404338836669922 11.004043579101562 1.9276187419891357 0 0 0
221 1 0.0 0.0 1.0 -0.0004121291567571461 14.348417282104492 15.648184776306152 10.523553848266602 0 0 0
222 1 0.0 0.0 1.0 -0.00040475488640367985 14.572392463684082 7.502575874328613 3.7536892890930176 0 0 0
223 1 0.0 0.0 1.0 -0.00041369980317540467 12.057607650756836 23.693696975708008 25.042531967163086 0 0 0
224 1 0.0 0.0 1.0 -0.0003901096642948687 14.87109661102295 17.935991287231445 12.378201484680176 0 0 0
225 1 0.0 0.0 1.0 -0.00042593845864757895 5.370117664337158 17.370010375976562 6.615197658538818 0 0 0
226 1 0.0 0.0 1.0 -0.0004565047565847635 28.68990135192871 5.313799858093262 6.418187141418457 0 0 0
227 1 0.0 0.0 1.0 -0.0004124077968299389 3.304326295852661 4.6128692626953125 26.251880645751953 0 0 0
228 1 0.0 0.0 1.0 -0.0004156792419962585 25.390525817871094 23.56216049194336 17.440044403076172 0 0 0
229 1 0.0 0.0 1.0 -0.00040372920921072364 6.655923366546631 19.021326065063477 24.86539649963379 0 0 0
230 1 0.0 0.0 1.0 -0.00040965055814012885 3.283597946166992 18.3911190032959 26.163368225097656 0 0 0
231 1 0.0 0.0 1.0 -0.0003961874172091484 5.13202428817749 29.675888061523438 7.985541820526123 0 0 0
232 1 0.0 0.0 1.0 -0.0003671429003588855 22.909076690673828 26.57847785949707 10.303860664367676 0 0 0
233 1 0.0 0.0 1.0 -0.0003524146741256118 4.1497416496276855 28.9040584564209 13.237340927124023 0 0 0
234 1 0.0 0.0 1.0 -0.00038818776374682784 23.201961517333984 29.766347885131836 19.332714080810547 0 0 0
235 1 0.0 0.0 1.0 -0.00035759626189246774 21.95648956298828 11.846796989440918 11.660435676574707 0 0 0
236 1 0.0 0.0 1.0 -0.0004046004032716155 18.207080841064453 11.37234878540039 5.131293296813965 0 0 0
237 1 0.0 0.0 1.0 -0.00038056905032135546 17.389009475708008 24.155942916870117 7.574248313903809 0 0 0
238 1 0.0 0.0 1.0 -0.0004199603572487831 1.1482282876968384 13.252740859985352 10.421774864196777 0 0 0
239 1 0.0 0.0 1.0 -0.0003867839986924082 24.233583450317383 14.743325233459473 13.259467124938965 0 0 0
240 1 0.0 0.0 1.0 -0.00036934163654223084 2.743704080581665 28.575769424438477 18.62833595275879 0 0 0
241 1 0.0 0.0 1.0 -0.00038502708775922656 15.450250625610352 3.64483904838562 23.59107780456543 0 0 0
242 1 0.0 0.0 1.0 -0.0004189073806628585 20.591493606567383 7.158524036407471 15.832806587219238 0 0 0
243 1 0.0 0.0 1.0 -0.000336123863235116 4.913718223571777 12.385215759277344 6.858819007873535 0 0 0
244 1 0.0 0.0 1.0 -0.0004477828915696591 18.752042770385742 26.01340103149414 19.753543853759766 0 0 0
245 1 0.0 0.0 1.0 -0.00034914142452180386 17.803058624267578 11.481228828430176 24.28022003173828 0 0 0
246 1 0.0 0.0 1.0 -0.0004457065078895539 13.036991119384766 5.908999919891357 20.36251449584961 0 0 0
247 1 0.0 0.0 1.0 -0.00037445651832967997 1.4903509616851807 29.108585357666016 10.187236785888672 0 0 0
248 1 0.0 0.0 1.0 -0.00043699314119294286 5.741720676422119 15.639626502990723 17.585655212402344 0 0 0
249 1 0.0 0.0 1.0 -0.0003627076803240925 23.403581619262695 8.041617393493652 9.419031143188477 0 0 0
250 1 0.0 0.0 1.0 -0.00045909342588856816 11.562681198120117 4.963146209716797 28.25511360168457 0 0 0
251 1 0.0 0.0 1.0 -0.0003614104352891445 13.915434837341309 11.895127296447754 9.080058097839355 0 0 0
252 1 0.0 0.0 1.0 -0.0003971585538238287 18.450714111328125 1.6654932498931885 15.085511207580566 0 0 0
253 1 0.0 0.0 1.0 -0.00040625635301694274 0.0012806395534425974 21.52370834350586 11.496906280517578 0 0 0
254 1 0.0 0.0 1.0 -0.0003984107170253992 16.14584732055664 14.886934280395508 12.509886741638184 0 0 0
255 1 0.0 0.0 1.0 -0.00048706590314395726 15.006053924560547 22.67046356201172 30.146617889404297 0 0 0
256 1 0.0 0.0 1.0 -0.00043840263970196247 12.356369972229004 4.931829929351807 14.986794471740723 0 0 0
257 1 0.0 0.0 1.0 -0.0003983885981142521 9.07422924041748 11.028964042663574 28.41124153137207 0 0 0
258 1 0.0 0.0 1.0 -0.00041764561319723725 0.876658022403717 6.151034355163574 13.935096740722656 0 0 0
259 1 0.0 0.0 1.0 -0.0004381532780826092 8.503419876098633 14.678643226623535 12.628830909729004 0 0 0
260 1 0.0 0.0 1.0 -0.0003971210098825395 27.00600814819336 12.947843551635742 16.61297035217285 0 0 0
261 1 0.0 0.0 1.0 -0.0003744870191439986 28.28141975402832 20.996871948242188 29.858280181884766 0 0 0
262 1 0.0 0.0 1.0 -0.00041326083010062575 25.24961280822754 9.26785659790039 5.893218040466309 0 0 0
263 1 0.0 0.0 1.0 -0.0003955113934352994 26.734127044677734 0.6410015821456909 29.233489990234375 0 0 0
264 1 0.0 0.0 1.0 -0.00042120437137782574 27.89681625366211 15.483521461486816 19.58028793334961 0 0 0
265 1 0.0 0.0 1.0 -0.0003846593317575753 3.174541711807251 26.46072006225586 23.010971069335938 0 0 0
266 1 0.0 0.0 1.0 -0.00037366419564932585 18.875146865844727 12.62190055847168 1.0576868057250977 0 0 0
267 1 0.0 0.0 1.0 -0.00040749149047769606 0.5214377045631409 11.603568077087402 28.188507080078125 0 0 0
268 1 0.0 0.0 1.0 -0.0004575550847221166 27.25301742553711 29.791934967041016 26.839767456054688 0 0 0
269 1 0.0 0.0 1.0 -0.00039512530202046037 25.697837829589844 27.761117935180664 28.49832534790039 0 0 0
270 1 0.0 0.0 1.0 -0.0003769146860577166 14.76771068572998 0.6000157594680786 4.344574928283691 0 0 0
271 1 0.0 0.0 1.0 -0.00042046463931910694 13.848588943481445 5.081055641174316 18.08455467224121 0 0 0
272 1 0.0 0.0 1.0 -0.00040904548950493336 7.981917858123779 1.9954053163528442 6.7967753410339355 0 0 0
273 1 0.0 0.0 1.0 -0.00041609283653087914 16.189556121826172 25.180511474609375 24.89166831970215 0 0 0
274 1 0.0 0.0 1.0 -0.0004102054226677865 29.280773162841797 6.8614959716796875 3.380786418914795 0 0 0
275 1 0.0 0.0 1.0 -0.0003546891384758055 22.11927032470703 1.347158670425415 6.696134090423584 0 0 0
276 1 0.0 0.0 1.0 -0.0004172545741312206 7.522406578063965 5.064632415771484 13.676714897155762 0 0 0
277 1 0.0 0.0 1.0 -0.0004346208879724145 13.671217918395996 11.820712089538574 25.945453643798828 0 0 0
278 1 0.0 0.0 1.0 -0.00042209483217447996 5.560314178466797 14.921825408935547 25.50106430053711 0 0 0
279 1 0.0 0.0 1.0 -0.0003818319528363645 10.220067024230957 14.293798446655273 3.0783536434173584 0 0 0
280 1 0.0 0.0 1.0 -0.00038236886030063033 4.215880870819092 23.850269317626953 0.7269771695137024 0 0 0
281 1 0.0 0.0 1.0 -0.00047364598140120506 11.011958122253418 14.225203514099121 27.20984649658203 0 0 0
282 1 0.0 0.0 1.0 -0.0003956312430091202 19.52915382385254 18.992582321166992 24.653453826904297 0 0 0
283 1 0.0 0.0 1.0 -0.00040130072738975286 9.389032363891602 20.43100929260254 26.104393005371094 0 0 0
284 1 0.0 0.0 1.0 -0.0004637491947505623 26.80911636352539 23.59846305847168 23.984107971191406 0 0 0
285 1 0.0 0.0 1.0 -0.00043105060467496514 20.776018142700195 30.107412338256836 17.406726837158203 0 0 0
286 1 0.0 0.0 1.0 -0.00042086467146873474 16.747785568237305 21.36199188232422 9.71883773803711 0 0 0
287 1 0.0 0.0 1.0 -0.00043889842345379293 10.35329532623291 20.14128303527832 15.66345500946045 0 0 0
288 1 0.0 0.0 1.0 -0.00043968454701825976 20.9678955078125 25.729907989501953 23.531007766723633 0 0 0
289 1 0.0 0.0 1.0 -0.00040415674448013306 6.914948463439941 26.54067611694336 8.756172180175781 0 0 0