LAMMPS data file via write_data, version 19 Nov 2024, timestep = 0, units = lj

1000 atoms
1 atom types

0 1.25992104989487 xlo xhi
0 1.25992104989487 ylo yhi
0 1.25992104989487 zlo zhi

Masses

1 1

Atoms # sph

1 1 0 0 1 1 1.1473501213841881 0.42182146306368046 1.2375030027385114 0 0 0
2 1 0 0 1 1 1.1961964115422459 1.1728166679789864 0.064913117581899 0 0 0
3 1 0 0 1 1 1.1630590399139278 1.1181157643720345 0.4491926187984724 0 0 0
4 1 0 0 1 1 0.1334131758635145 0.875698975114329 0.7348909245496579 0 0 0
5 1 0 0 1 1 0.3057167866876714 0.2239923884129926 1.2558960211896715 0 0 0
6 1 0 0 1 1 0.38707924605027677 0.6685077597875331 0.8939168365112643 0 0 0
7 1 0 0 1 1 0.7616722983895022 0.6284521004851324 0.4762915849251988 0 0 0
8 1 0 0 1 1 0.7542378557058068 0.40995785520664807 0.9133716329846598 0 0 0
9 1 0 0 1 1 0.15896365408024044 0.6695083494760459 0.07193303281648378 0 0 0
10 1 0 0 1 1 0.714195697462304 0.21924490051568327 0.8398930744885934 0 0 0
11 1 0 0 1 1 1.1873809575594392 0.4222444166473249 0.7865575836820167 0 0 0
12 1 0 0 1 1 0.5816534466764521 0.12205215683389033 0.17913067834621074 0 0 0
13 1 0 0 1 1 0.6979227659194571 0.12295228707454936 0.18856703436420102 0 0 0
14 1 0 0 1 1 0.5447060735283751 0.28862925527394195 0.2958512938920629 0 0 0
15 1 0 0 1 1 0.7242335587438709 0.09615877389828675 0.9217269432820285 0 0 0
16 1 0 0 1 1 0.7354272836252043 0.5008564201323829 0.3613188173325648 0 0 0
17 1 0 0 1 1 1.125823465038046 0.2206495732829566 0.5097283260484047 0 0 0
18 1 0 0 1 1 0.8007576603149237 1.1172629858158263 1.2355960233448264 0 0 0
19 1 0 0 1 1 0.6436199892488215 0.8989459574828316 0.8713981245632917 0 0 0
20 1 0 0 1 1 0.2659955572738087 0.387446073903937 0.5341782467803962 0 0 0
21 1 0 0 1 1 0.9963131371689019 0.6841432949109685 0.3568562280620001 0 0 0
22 1 0 0 1 1 0.45842753845447903 0.3744186972990594 0.8093223303099449 0 0 0
23 1 0 0 1 1 0.17275085422787034 0.5655080500363118 0.9093176032868323 0 0 0
24 1 0 0 1 1 0.05862321701641462 0.022147377092120005 0.5542570682742226 0 0 0
25 1 0 0 1 1 0.8022246120846357 0.5739003814668939 0.8480743688563489 0 0 0
26 1 0 0 1 1 0.0990799079892963 0.880306664979561 0.06122939602112219 0 0 0
27 1 0 0 1 1 0.9868822127867224 0.9286494903723982 1.1699396411410135 0 0 0
28 1 0 0 1 1 0.8476439976693824 0.42535766801377484 0.1942892040211222 0 0 0
29 1 0 0 1 1 0.9632117053922249 1.2334834778327881 0.415856965475027 0 0 0
30 1 0 0 1 1 0.5259549719342654 0.11912723679063554 0.15692045726296278 0 0 0
31 1 0 0 1 1 0.34736778865262313 0.9961997217031602 0.037890612084400636 0 0 0
32 1 0 0 1 1 0.5673871056120654 0.9925784176051862 0.9107640822836328 0 0 0
33 1 0 0 1 1 0.43109576823962753 0.8805399079166368 0.20158028977202444 0 0 0
34 1 0 0 1 1 0.032227031109195566 1.1335814473506212 0.8371901615585422 0 0 0
35 1 0 0 1 1 1.1166811384037807 0.2759339183562312 1.1119022000561292 0 0 0
36 1 0 0 1 1 0.5912643026486337 0.3818140947467603 0.371583294228015 0 0 0
37 1 0 0 1 1 1.0317028112725837 0.7956604051102643 1.1223261539562601 0 0 0
38 1 0 0 1 1 0.6576315667633463 0.7862929137624568 1.1730303082139986 0 0 0
39 1 0 0 1 1 1.1357224476408858 0.2832715930861885 0.9639384967509835 0 0 0
40 1 0 0 1 1 0.849455345540369 0.6305761382073956 0.8972041859448318 0 0 0
41 1 0 0 1 1 0.5756280329812326 0.9065292227635257 1.071311657806471 0 0 0
42 1 0 0 1 1 0.0033087057713449323 0.17289170362000097 0.4129216837856226 0 0 0
43 1 0 0 1 1 0.32959656401526327 0.9165160666811704 0.09077669575072582 0 0 0
44 1 0 0 1 1 1.1794551096562231 0.7641499961501161 0.6937237165910736 0 0 0
45 1 0 0 1 1 0.10510901904559587 0.15797114672213686 0.3674108304629417 0 0 0
46 1 0 0 1 1 0.20076205590327934 0.13930194795360218 0.31452855152314846 0 0 0
47 1 0 0 1 1 0.9125611405756815 0.396149285227222 0.6582091694265165 0 0 0
48 1 0 0 1 1 0.4146924745038416 1.1130920175400252 0.4297899561723591 0 0 0
49 1 0 0 1 1 0.3524143415493585 0.13898286428432333 1.2512945714279697 0 0 0
50 1 0 0 1 1 1.1656181946108084 0.032592008522226386 0.9681515786852559 0 0 0
51 1 0 0 1 1 1.1031446207454487 0.8133916657449759 0.5303348164698376 0 0 0
52 1 0 0 1 1 0.6557534522487118 0.7188485136723205 0.30402184878114963 0 0 0
53 1 0 0 1 1 0.7153551410838588 0.8071980995645471 1.0085151632769955 0 0 0
54 1 0 0 1 1 0.39646496077677473 0.9240839311798349 0.03184928542114334 0 0 0
55 1 0 0 1 1 1.0844149177312616 1.0035355800208825 1.1193195182436007 0 0 0
56 1 0 0 1 1 0.5219471398889552 0.7952307455861017 0.20064378083077372 0 0 0
57 1 0 0 1 1 0.6712949041414021 1.1203731458786377 0.5913721034292698 0 0 0
58 1 0 0 1 1 0.9337007650022299 0.3920809518697418 0.31746712457968373 0 0 0
59 1 0 0 1 1 1.1642375558639484 0.7666965380465367 0.656137673305574 0 0 0
60 1 0 0 1 1 0.8768465668807303 1.1236499940322984 0.22883282663018617 0 0 0
61 1 0 0 1 1 0.7142728943955872 0.2567727083107345 0.3493126885851922 0 0 0
62 1 0 0 1 1 0.9261855911257866 0.07665859997402263 0.7617767708411306 0 0 0
63 1 0 0 1 1 1.1243995451067628 0.2273272362051253 0.6082356182944262 0 0 0
64 1 0 0 1 1 0.8765588773389336 0.06821501474084568 1.2215183949563326 0 0 0
65 1 0 0 1 1 0.9060770440692052 1.0310706417319189 0.250155334316618 0 0 0
66 1 0 0 1 1 0.004160360217139133 0.6275164252395489 1.129371381036144 0 0 0
67 1 0 0 1 1 0.6341844082568525 1.0651885122152323 0.40512684520153897 0 0 0
68 1 0 0 1 1 0.35353367038727534 0.05272689472960542 0.45642164438471494 0 0 0
69 1 0 0 1 1 0.6792254139346757 0.8568199525712432 0.9352636164149217 0 0 0
70 1 0 0 1 1 0.20058259719062269 0.9029025140177781 0.5934281629796986 0 0 0
71 1 0 0 1 1 0.21210423200275313 0.5191771176845245 0.8565464018273945 0 0 0
72 1 0 0 1 1 0.1174594142343258 1.1040109009472514 0.2539104187010969 0 0 0
73 1 0 0 1 1 0.11981111541034668 0.3115789696942701 0.4758602885179176 0 0 0
74 1 0 0 1 1 1.0649654379011713 0.43567999846027894 1.072513182818192 0 0 0
75 1 0 0 1 1 0.03860277944724034 1.197494523805196 0.31161057327238795 0 0 0
76 1 0 0 1 1 1.0070216259439733 0.49300400257118787 0.6774471052880404 0 0 0
77 1 0 0 1 1 1.2068917260483467 0.7602574370515346 0.7873775412649562 0 0 0
78 1 0 0 1 1 0.5035489942974465 0.258255013340063 0.06399231861171145 0 0 0
79 1 0 0 1 1 0.8062433467102299 0.08103653950619473 0.006464544260307991 0 0 0
80 1 0 0 1 1 0.29638509203756896 0.8763316410001974 0.028817019287007656 0 0 0
81 1 0 0 1 1 0.5179599971075497 0.5591376629305027 0.9355107570177013 0 0 0
82 1 0 0 1 1 0.5745115584215852 1.0407570471937286 0.5197564945177844 0 0 0
83 1 0 0 1 1 0.5147644392683616 1.0280022051744342 0.3357051583609439 0 0 0
84 1 0 0 1 1 0.27013514315605686 0.6658082526304221 0.8804578431628395 0 0 0
85 1 0 0 1 1 0.08223902259323204 0.05786098977827273 1.070525734485076 0 0 0
86 1 0 0 1 1 0.6534269919277188 0.6755824454832834 0.10565958497587939 0 0 0
87 1 0 0 1 1 0.5918853877331123 0.7410227104196375 0.049115812057327436 0 0 0
88 1 0 0 1 1 0.24116556636239728 0.10365634101401727 0.9412324678779921 0 0 0
89 1 0 0 1 1 0.9853061953188103 0.898865954967085 0.7867168923048138 0 0 0
90 1 0 0 1 1 0.7393113702402317 0.26480556436767155 0.5459720987753256 0 0 0
91 1 0 0 1 1 0.1480577325598166 0.06223759046912706 0.292711601876328 0 0 0
92 1 0 0 1 1 0.8721139458716736 0.9575148381934596 1.240236260196081 0 0 0
93 1 0 0 1 1 0.5169756548040559 0.39427021674414636 0.5747314217459303 0 0 0
94 1 0 0 1 1 0.9562367897759897 1.1787343559907166 1.249653638930432 0 0 0
95 1 0 0 1 1 0.044807756287086116 0.9110931298188625 0.9217134932657226 0 0 0
96 1 0 0 1 1 0.5093728595716589 1.1260378351234523 0.043804449020578666 0 0 0
97 1 0 0 1 1 0.4274815502614765 0.612588744086592 0.9641231723685472 0 0 0
98 1 0 0 1 1 0.1735353002475835 1.1504818044065712 0.13933392467066746 0 0 0
99 1 0 0 1 1 0.8519612352391956 1.1696696598584169 0.089831730753422 0 0 0
100 1 0 0 1 1 0.4164809987092084 0.9347131396624999 1.0280882183953959 0 0 0
101 1 0 0 1 1 0.5214083131681054 0.5586173975255031 1.0108574444546823 0 0 0
102 1 0 0 1 1 0.7056321674185012 1.1829161922317106 0.9781965472077184 0 0 0
103 1 0 0 1 1 1.0995098918591166 0.20071366811288321 0.5859694046612899 0 0 0
104 1 0 0 1 1 0.8448581639954011 0.2209299555203654 0.18242839059932056 0 0 0
105 1 0 0 1 1 0.68604640856169 0.8444611083668178 1.1071423052888165 0 0 0
106 1 0 0 1 1 1.2266601417002088 0.3888621256490185 0.3952599783628252 0 0 0
107 1 0 0 1 1 0.8306812982477763 0.07542576531910948 0.20026152403365385 0 0 0
108 1 0 0 1 1 0.5463101644218155 0.7902428535347468 0.7838524166641726 0 0 0
109 1 0 0 1 1 0.4730691739891154 0.7717823984325834 0.4595617887434192 0 0 0
110 1 0 0 1 1 0.5389475550923816 0.5191307434363732 0.07713441314846817 0 0 0
111 1 0 0 1 1 1.1992424943779738 0.711567842370249 0.15012111466874112 0 0 0
112 1 0 0 1 1 0.7236323480019162 0.0709782330264499 1.0458492749964372 0 0 0
113 1 0 0 1 1 0.43019778178782697 0.9071342112439751 1.1599846495607846 0 0 0
114 1 0 0 1 1 1.1036001447829742 0.9098578650672191 0.3193556107143075 0 0 0
115 1 0 0 1 1 0.1460767232203301 0.7852819688814555 0.561053341859271 0 0 0
116 1 0 0 1 1 0.3743792155608999 0.14575275706312552 0.3800669643233106 0 0 0
117 1 0 0 1 1 1.245667464784879 1.0849155863011621 0.5988248850708581 0 0 0
118 1 0 0 1 1 0.20049682568860186 0.7212619294487871 0.5488272072203141 0 0 0
119 1 0 0 1 1 0.25686547147444855 0.6484621312325298 0.3859580345034253 0 0 0
120 1 0 0 1 1 0.7231210402784416 0.2968766738527235 0.3188998590385562 0 0 0
121 1 0 0 1 1 0.0457846082368971 0.9500702016588016 0.8504139617908638 0 0 0
122 1 0 0 1 1 0.3630658116424363 0.24945163357036762 0.7762724169359654 0 0 0
123 1 0 0 1 1 0.32803978139073575 1.2100125440390193 0.29516131069570345 0 0 0
124 1 0 0 1 1 0.4669754265840078 0.4077748022743437 0.7605114466964477 0 0 0
125 1 0 0 1 1 0.016833443738187532 0.6973737312669297 0.9746952812051071 0 0 0
126 1 0 0 1 1 0.21010048113515106 0.860004633058095 0.28358341345331395 0 0 0
127 1 0 0 1 1 1.1650192074484307 0.04478316959860925 0.49786465658824414 0 0 0
128 1 0 0 1 1 0.475590926786781 0.3175659723723665 0.30573030769424875 0 0 0
129 1 0 0 1 1 0.4512399459588162 0.5249724126013083 1.2441472263093445 0 0 0
130 1 0 0 1 1 0.7326885258883384 1.0876339827374437 0.9297559934390407 0 0 0
131 1 0 0 1 1 0.8681209337788993 0.6227762393663593 0.8360935537143648 0 0 0
132 1 0 0 1 1 0.3248877998442894 1.151342788499445 0.7507620247547511 0 0 0
133 1 0 0 1 1 1.2079564058712648 1.0154365223070372 0.811009588359828 0 0 0
134 1 0 0 1 1 0.8122338009235903 1.228837561759817 0.44705062053753214 0 0 0
135 1 0 0 1 1 0.6705588511923533 0.08882068026705825 1.062650172921995 0 0 0
136 1 0 0 1 1 0.580574040185735 0.8792830157734522 0.4956518874803282 0 0 0
137 1 0 0 1 1 1.083212026890186 0.9452860123778486 1.0774919100841724 0 0 0
138 1 0 0 1 1 0.5612826457163261 0.4485259914014203 0.2686959626631973 0 0 0
139 1 0 0 1 1 0.41600165714226284 0.43794572337721505 0.09499931502262401 0 0 0
140 1 0 0 1 1 0.3335173684414355 0.037660412928550206 0.47819304291851505 0 0 0
141 1 0 0 1 1 1.2140161020006306 0.807144327074057 0.10476091560940147 0 0 0
142 1 0 0 1 1 0.6070019440768812 0.300933101378976 0.45954059844073925 0 0 0
143 1 0 0 1 1 0.18280213795100966 0.6680128989258732 0.1363166339636292 0 0 0
144 1 0 0 1 1 0.5371983178419502 0.0978844230176133 0.9465275442210591 0 0 0
145 1 0 0 1 1 0.5252597507119265 1.033754651888781 0.003156244482912183 0 0 0
146 1 0 0 1 1 0.13031692872051473 0.49383628840680505 0.8065435956631088 0 0 0
147 1 0 0 1 1 0.08763649096228639 0.05879627604410443 0.4109083556850357 0 0 0
148 1 0 0 1 1 0.5094595246123856 0.06277507482848045 0.5067638802647559 0 0 0
149 1 0 0 1 1 0.11423832043179129 1.1436925072291082 0.6844318034810208 0 0 0
150 1 0 0 1 1 0.1661355653529665 0.2554003202761671 1.2220869396128835 0 0 0
151 1 0 0 1 1 0.3822386875603092 1.2081094620699062 1.0680099530839628 0 0 0
152 1 0 0 1 1 1.2080046798425481 0.5668561077687546 0.8875450143459184 0 0 0
153 1 0 0 1 1 0.763746406483077 0.2101974321381843 1.2295390911424755 0 0 0
154 1 0 0 1 1 0.8983655058216601 1.1951154544127895 0.6440648917336664 0 0 0
155 1 0 0 1 1 0.8168957209025498 0.20670050475588195 0.4130488719507224 0 0 0
156 1 0 0 1 1 1.2073270049511866 0.5164636577122429 0.6085824439057345 0 0 0
157 1 0 0 1 1 0.40605167712318063 0.7781311786812273 0.07022218663549593 0 0 0
158 1 0 0 1 1 0.9381880811817249 0.2151409869514911 1.1610755453282442 0 0 0
159 1 0 0 1 1 0.5394695600523799 0.4730207568638964 1.2179568247715613 0 0 0
160 1 0 0 1 1 0.26305629367554206 0.12416372373623637 0.39044620901983884 0 0 0
161 1 0 0 1 1 0.5606071439486462 0.434657231058947 0.26183511726595127 0 0 0
162 1 0 0 1 1 1.0185096559563669 0.8044037869533508 0.6615819530116411 0 0 0
163 1 0 0 1 1 0.4046189444243975 0.6366926582355309 0.3840302074377919 0 0 0
164 1 0 0 1 1 1.0800788454450485 1.2025895595371536 0.2692447274353539 0 0 0
165 1 0 0 1 1 0.8196438335144429 1.0370713766273176 0.3108227296934849 0 0 0
166 1 0 0 1 1 0.36494509426971916 0.33652850294253706 0.2489559771483104 0 0 0
167 1 0 0 1 1 0.005301230788914395 0.903312376643349 1.1823840614775392 0 0 0
168 1 0 0 1 1 0.8541223111088695 0.9531613545164542 1.1466569946682053 0 0 0
169 1 0 0 1 1 0.11173019659285141 0.5670497926971315 0.3630444558913551 0 0 0
170 1 0 0 1 1 1.1504465750443411 0.8071550835669229 0.28554529120799255 0 0 0
171 1 0 0 1 1 0.12043028317079965 0.6385631204682602 0.3228627055462318 0 0 0
172 1 0 0 1 1 1.133451268206977 1.169111394123815 0.7864279284583098 0 0 0
173 1 0 0 1 1 0.9223802016268858 0.3754508365896158 0.5175926881627937 0 0 0
174 1 0 0 1 1 0.6853814778907953 1.0082607716926884 1.160589802902939 0 0 0
175 1 0 0 1 1 1.1950439672094382 0.702500514904334 0.20599543231331213 0 0 0
176 1 0 0 1 1 1.162106828628668 0.23335329174627015 1.0944671067270362 0 0 0
177 1 0 0 1 1 1.1212553460888355 0.29945843748432005 0.8732855188558067 0 0 0
178 1 0 0 1 1 0.4894051842016736 0.6683171638160089 0.21041244289612293 0 0 0
179 1 0 0 1 1 1.0634617501327246 0.36162067207365 1.1594118988773245 0 0 0
180 1 0 0 1 1 0.29682675713135714 0.7398705729290777 0.8438778065342519 0 0 0
181 1 0 0 1 1 0.12303575461957854 0.3314850137747067 1.1576649262752219 0 0 0
182 1 0 0 1 1 1.1735634310718812 0.016549920914637552 0.9718898354419188 0 0 0
183 1 0 0 1 1 0.935973435231839 0.7912180040648289 0.7942337271189306 0 0 0
184 1 0 0 1 1 1.0826491016123125 0.3036482164219664 0.7353213297650187 0 0 0
185 1 0 0 1 1 1.2399319917857665 0.442820682227317 0.13356446551912007 0 0 0
186 1 0 0 1 1 0.8985821170875369 1.0559378503198573 1.1594625565963177 0 0 0
187 1 0 0 1 1 1.148231040249321 0.10837223061347692 0.8261628226193822 0 0 0
188 1 0 0 1 1 0.9885899224884442 0.6519422996305017 0.9207800040511426 0 0 0
189 1 0 0 1 1 1.1991932787588753 1.14432198207294 1.1846471046049645 0 0 0
190 1 0 0 1 1 1.0914566569007014 0.9214671106747672 0.14818380306816328 0 0 0
191 1 0 0 1 1 0.9211835743571987 0.42247311327354575 0.8504986308902396 0 0 0
192 1 0 0 1 1 0.5261783149553045 0.09309024170927935 1.0056694883243598 0 0 0
193 1 0 0 1 1 0.4462059278319118 0.33294009667506774 0.41482223474621444 0 0 0
194 1 0 0 1 1 0.7741303113095732 0.8633809655700958 0.3331566973804083 0 0 0
195 1 0 0 1 1 0.27546713972054665 0.8262799694745986 0.43763501832005686 0 0 0
196 1 0 0 1 1 1.1725846688384018 1.205387761359172 0.6815439039842831 0 0 0
197 1 0 0 1 1 0.7661296695817671 1.2081477850825608 0.4521837768718662 0 0 0
198 1 0 0 1 1 0.008964919599123461 0.7427987649784802 0.9210806349434157 0 0 0
199 1 0 0 1 1 1.2122124856155714 0.7318689408576498 1.1719999207990666 0 0 0
200 1 0 0 1 1 0.19697481351252955 0.7430926312605894 0.8204070387755806 0 0 0
201 1 0 0 1 1 0.005130651727153706 0.5562321854211787 1.240071203708082 0 0 0
202 1 0 0 1 1 0.2627133607952344 0.6600960538798093 0.6295332336235263 0 0 0
203 1 0 0 1 1 1.008001543382779 0.5835027479413244 0.9651533180645383 0 0 0
204 1 0 0 1 1 1.1082203641377693 0.4467794676221084 1.1529760012449846 0 0 0
205 1 0 0 1 1 0.4819055413538737 0.6139248103301242 0.7408096293063502 0 0 0
206 1 0 0 1 1 0.24762469072082371 0.3089491421287225 0.3735851406789136 0 0 0
207 1 0 0 1 1 0.6588677643623584 0.14440811214398047 0.4591987063599486 0 0 0
208 1 0 0 1 1 0.7362271855764142 0.08567696527370897 1.1429163752849052 0 0 0
209 1 0 0 1 1 0.23919271621055602 0.9638321861793515 0.3226146180153686 0 0 0
210 1 0 0 1 1 0.743607286674055 0.6507732236264949 0.17093535313265573 0 0 0
211 1 0 0 1 1 0.29048634024072606 0.009852083261358198 0.5343058374192663 0 0 0
212 1 0 0 1 1 0.6208869048686567 0.5800748982000191 0.04972996121627634 0 0 0
213 1 0 0 1 1 0.48380208165747673 0.9910514456143998 0.44536683103711044 0 0 0
214 1 0 0 1 1 0.08937181529290629 0.24620815319107478 0.4397028276404555 0 0 0
215 1 0 0 1 1 0.6484665197220378 0.45971537766244475 0.6004744173650811 0 0 0
216 1 0 0 1 1 0.20592299700848432 1.2046077102826276 0.17043595945415926 0 0 0
217 1 0 0 1 1 0.7166241350148883 0.716521250163876 0.2472566090968322 0 0 0
218 1 0 0 1 1 0.422206537177193 0.1499173291741386 1.0783726899022446 0 0 0
219 1 0 0 1 1 0.24549644931843712 1.0773063391678135 1.2221554041560816 0 0 0
220 1 0 0 1 1 0.27300121519776094 0.958881161546738 0.26553291074127977 0 0 0
221 1 0 0 1 1 0.17127210105890026 0.9105245370532021 0.18482223007506401 0 0 0
222 1 0 0 1 1 0.6018328807459079 0.3590381404563896 0.5921187040072456 0 0 0
223 1 0 0 1 1 0.8826061800923148 0.9115483992301251 1.0139001889875627 0 0 0
224 1 0 0 1 1 0.18827648585056322 0.7011414043973138 0.042004038931663726 0 0 0
225 1 0 0 1 1 0.40609438334507486 0.23597360016178234 1.036753899919638 0 0 0
226 1 0 0 1 1 0.014675903301371184 0.9733020566458241 0.7326752612681133 0 0 0
227 1 0 0 1 1 0.8646955106141456 1.0080574045126605 0.262439707966202 0 0 0
228 1 0 0 1 1 1.1004971559109724 0.41468693902275783 1.020057186964444 0 0 0
229 1 0 0 1 1 0.3554153919117353 0.18079430895632612 0.9402993324413763 0 0 0
230 1 0 0 1 1 0.4211515108577994 0.05698467765373022 0.20147940614263143 0 0 0
231 1 0 0 1 1 0.8565179716904195 0.8995551519901903 1.0307618105832483 0 0 0
232 1 0 0 1 1 0.09931441819072212 1.041956470658736 0.5197298725792938 0 0 0
233 1 0 0 1 1 0.0673295190566418 0.19812397938552836 1.1583077103282098 0 0 0
234 1 0 0 1 1 0.637545560584692 0.8596284409422642 0.2605277721608374 0 0 0
235 1 0 0 1 1 0.4646183225203028 1.109400400218313 0.12090907500316384 0 0 0
236 1 0 0 1 1 1.1260911476439193 0.9398279805067995 0.05866584579437631 0 0 0
237 1 0 0 1 1 0.7386092482941506 1.0634525155304713 0.2064147120037349 0 0 0
238 1 0 0 1 1 0.6494142861949298 0.009852838926396455 0.5470062997172364 0 0 0
239 1 0 0 1 1 1.1508993146204758 0.8568228402912108 0.9837975259107364 0 0 0
240 1 0 0 1 1 0.74108021136612 1.0155342195879653 1.1930867390241915 0 0 0
241 1 0 0 1 1 0.5653137027276335 0.16276448612105318 0.29411891477766355 0 0 0
242 1 0 0 1 1 0.5863219306153868 0.4701566250273798 0.9574929444417263 0 0 0
243 1 0 0 1 1 0.8722679748130429 1.0264371559968095 0.49026567781630814 0 0 0
244 1 0 0 1 1 0.011580746240390882 0.6097603784395647 0.04486058888985009 0 0 0
245 1 0 0 1 1 0.5391296345781174 1.0594985604076208 0.5281066066845328 0 0 0
246 1 0 0 1 1 1.0038630874779095 0.3241320990175493 1.0494894924281366 0 0 0
247 1 0 0 1 1 1.135121761405565 0.26690643520688684 0.5775188964099053 0 0 0
248 1 0 0 1 1 1.188244621095038 1.078705910609382 0.8062526745972199 0 0 0
249 1 0 0 1 1 0.23781033614860775 0.40874938312216474 0.7613181073908568 0 0 0
250 1 0 0 1 1 0.9751692357251729 0.6163278005105274 0.8103919947059725 0 0 0
251 1 0 0 1 1 0.51170565973458 0.01593657670322941 0.7427820734642423 0 0 0
252 1 0 0 1 1 0.6405463551474129 0.8971406607991157 0.7678819588271744 0 0 0
253 1 0 0 1 1 0.4207679351670413 1.169754342451811 0.25317102803589686 0 0 0
254 1 0 0 1 1 0.292082704341811 0.38160148240394315 0.5779707981834975 0 0 0
255 1 0 0 1 1 1.2238314304889675 0.7237126943217874 0.1614377812062092 0 0 0
256 1 0 0 1 1 0.6747683091026029 0.281600983721702 0.6042700055129497 0 0 0
257 1 0 0 1 1 1.0023205034943685 0.8562651354384231 0.42989941437048984 0 0 0
258 1 0 0 1 1 0.9321572276369442 0.9081905013075399 0.01423599947035073 0 0 0
259 1 0 0 1 1 1.1393646680542937 1.021859686279447 0.41191618168766475 0 0 0
260 1 0 0 1 1 1.0690175021658634 0.5029874008205333 0.8989218460184859 0 0 0
261 1 0 0 1 1 0.46615674330577567 0.5072964938701128 0.2464278363996071 0 0 0
262 1 0 0 1 1 0.3521553637588368 0.8260273385663626 1.2313515431761966 0 0 0
263 1 0 0 1 1 1.122141639093526 0.07633236858179264 0.3184899612111977 0 0 0
264 1 0 0 1 1 0.7161581231914746 0.4437868334204256 1.2526149693558872 0 0 0
265 1 0 0 1 1 0.6789672710132141 0.29797502125189956 1.1399298984625519 0 0 0
266 1 0 0 1 1 0.4423187587136925 0.51718332129573 0.10475779262415406 0 0 0
267 1 0 0 1 1 0.5545139310240121 0.07963264821860384 0.34976362172293174 0 0 0
268 1 0 0 1 1 0.9454925377449113 0.7688006046213602 0.7413951993074236 0 0 0
269 1 0 0 1 1 0.009931299603850726 0.6057738557963155 1.0791112181236509 0 0 0
270 1 0 0 1 1 0.0587297675468981 0.5530210930331683 0.18792553400306386 0 0 0
271 1 0 0 1 1 1.1022989529503149 0.4593845817717694 0.08047208236386867 0 0 0
272 1 0 0 1 1 0.5990017523452584 0.6532630067474526 0.43932562053975194 0 0 0
273 1 0 0 1 1 0.6083520276721944 0.31320918970117617 0.15670484690124378 0 0 0
274 1 0 0 1 1 0.5033675889259412 0.9891380841366418 1.0454477716220036 0 0 0
275 1 0 0 1 1 1.2416568670524646 0.45461514203977726 0.5554457000445765 0 0 0
276 1 0 0 1 1 0.6208219781051019 0.7487718330289961 0.516751368375112 0 0 0
277 1 0 0 1 1 0.4044513551677882 0.33986212219228606 0.8405685123063593 0 0 0
278 1 0 0 1 1 1.2001749116981246 0.003732093510368532 0.9891641839152846 0 0 0
279 1 0 0 1 1 0.22418570137581492 0.7251438376598651 0.27616391627519643 0 0 0
280 1 0 0 1 1 1.1977140744203287 0.22183461212420005 0.2679393325092673 0 0 0
281 1 0 0 1 1 0.2985291589902211 0.3739544672727896 0.5665345781619412 0 0 0
282 1 0 0 1 1 0.5232811122128279 0.5367246948053834 0.9571493967035304 0 0 0
283 1 0 0 1 1 0.13794533853358354 0.19257292737771659 1.0959343072560466 0 0 0
284 1 0 0 1 1 0.582073639266564 0.8846237693692781 0.8033030299918207 0 0 0
285 1 0 0 1 1 1.0599754489966744 0.9836468235382855 0.7280675373744867 0 0 0
286 1 0 0 1 1 0.2778640740201075 0.7940811455577239 1.0380529022011151 0 0 0
287 1 0 0 1 1 0.42834939987630494 0.07948462176869919 0.3817251779650267 0 0 0
288 1 0 0 1 1 0.13707999352593553 0.767771982576071 1.0922391826629065 0 0 0
289 1 0 0 1 1 0.2142460472143984 1.2388759827498055 0.3333715133551229 0 0 0
290 1 0 0 1 1 0.10611607706256107 0.7046215892227863 0.5771021054858586 0 0 0
291 1 0 0 1 1 0.4828448101152641 0.021241234386156584 0.44376920788542606 0 0 0
292 1 0 0 1 1 0.9563826026201573 1.1095687281257633 0.4301541157305271 0 0 0
293 1 0 0 1 1 0.17323878620435795 1.2066544794946394 0.5526177585790886 0 0 0
294 1 0 0 1 1 0.9686096636528219 1.242652371256077 0.8070806435202973 0 0 0
295 1 0 0 1 1 0.29435247746430926 0.7320468553852284 0.3824462361259951 0 0 0
296 1 0 0 1 1 0.9166150558676998 0.4945669038530787 0.4867869022357283 0 0 0
297 1 0 0 1 1 0.7600889084938955 0.4747601728156163 0.21421552785133546 0 0 0
298 1 0 0 1 1 0.725937047751272 1.0084354236012623 0.31620128062193875 0 0 0
299 1 0 0 1 1 0.047934956361831475 0.5532606904795838 0.43507666622393126 0 0 0
300 1 0 0 1 1 1.0116766856812462 0.6154879134355967 0.553541475190763 0 0 0
301 1 0 0 1 1 0.11454110743354867 1.1929494461859909 0.7776750708807258 0 0 0
302 1 0 0 1 1 1.2238657328707934 0.04031177577429524 0.9424116450349208 0 0 0
303 1 0 0 1 1 0.6449998735040362 0.15216068687529952 0.9848540764675285 0 0 0
304 1 0 0 1 1 0.8596307208447012 0.29884609241698035 0.6609703712363936 0 0 0
305 1 0 0 1 1 0.20513244699881927 0.5170441967911866 0.28633434455499257 0 0 0
306 1 0 0 1 1 0.7828393872506552 1.085978519528724 0.8246489421733659 0 0 0
307 1 0 0 1 1 0.7432222641898308 0.47930558074492735 1.0136236020895426 0 0 0
308 1 0 0 1 1 0.57936469040335 0.7124780215478455 0.32844995379203673 0 0 0
309 1 0 0 1 1 0.5442537933355673 0.24668235412365297 0.8500716021129958 0 0 0
310 1 0 0 1 1 0.908631955190603 1.134146162639389 0.24899162071823988 0 0 0
311 1 0 0 1 1 0.6043627105937145 0.04057269611679024 0.28801564176885946 0 0 0
312 1 0 0 1 1 0.06221751312962849 1.2151928068186844 0.4252854057844022 0 0 0
313 1 0 0 1 1 0.23969896485047093 0.6529057279653473 0.7341463791693754 0 0 0
314 1 0 0 1 1 0.39135307922941054 0.6833221574814513 0.4151309990114887 0 0 0
315 1 0 0 1 1 0.9238471181948104 1.0914176456931015 0.26580574454205647 0 0 0
316 1 0 0 1 1 0.9770266410282231 0.3357124815061361 0.3932152444008269 0 0 0
317 1 0 0 1 1 0.48270594610394835 0.20719589599114002 1.1795630635646348 0 0 0
318 1 0 0 1 1 0.05868923503538183 1.1317122218740259 0.9191438237949169 0 0 0
319 1 0 0 1 1 0.15825376016617654 0.07761078485794197 0.3861744662401859 0 0 0
320 1 0 0 1 1 0.5809260903290042 0.49658452422495436 0.37906414518825643 0 0 0
321 1 0 0 1 1 0.7702599105628279 0.06952915965791094 0.6297731179645099 0 0 0
322 1 0 0 1 1 5.3462714760160425e-05 0.8985478469740162 0.47996005237806044 0 0 0
323 1 0 0 1 1 0.6740388911038007 0.6214831767998256 0.5222488461958366 0 0 0
324 1 0 0 1 1 0.8263244457597074 1.1851479421434448 0.6895858168744465 0 0 0
325 1 0 0 1 1 1.115007275807433 1.1215094091231261 0.7897327051234737 0 0 0
326 1 0 0 1 1 1.0292354176618665 0.9035706363174058 0.4832702037694786 0 0 0
327 1 0 0 1 1 0.8712271312938316 1.1718748271403228 0.6143677907973718 0 0 0
328 1 0 0 1 1 0.6264560429681877 0.9464212447966598 1.258527424621906 0 0 0
329 1 0 0 1 1 0.5158399852963833 0.20588854971263323 0.6256520089138222 0 0 0
330 1 0 0 1 1 0.032231392023969914 1.2068753419630531 0.4848901155196128 0 0 0
331 1 0 0 1 1 0.37882081811245566 0.4604248972641683 1.186080914478445 0 0 0
332 1 0 0 1 1 1.2509992524854296 1.2418769269201233 0.3733981880923954 0 0 0
333 1 0 0 1 1 0.03659774254100174 0.25678653791964895 0.5817469256098453 0 0 0
334 1 0 0 1 1 0.43323154047775253 0.238753467132783 1.1408992354174288 0 0 0
335 1 0 0 1 1 0.354991310697498 0.6127876406396077 0.5272143892190065 0 0 0
336 1 0 0 1 1 1.1274167431157605 0.5405321776372471 0.6935398071990845 0 0 0
337 1 0 0 1 1 0.793907017569087 0.6313258969724062 0.8991892505302377 0 0 0
338 1 0 0 1 1 1.1806612226342477 0.8765540194922591 1.2464902355773362 0 0 0
339 1 0 0 1 1 1.0540927462814476 0.3869041805206997 0.2460235039748518 0 0 0
340 1 0 0 1 1 1.1160666002650799 0.026759820372056885 1.2204072305863292 0 0 0
341 1 0 0 1 1 1.1295532258432965 1.1706079822784201 0.7411640450097392 0 0 0
342 1 0 0 1 1 1.1646052179999722 0.6463888087255129 0.8174160561244278 0 0 0
343 1 0 0 1 1 0.13252722959643068 1.1046526629750089 0.9606364200629206 0 0 0
344 1 0 0 1 1 0.787978644641459 0.5269250440198046 0.04415512981431428 0 0 0
345 1 0 0 1 1 0.02176840110159478 0.4844128449911649 1.1767823957529686 0 0 0
346 1 0 0 1 1 1.2010052203666775 0.09959833703438144 0.7740962764613324 0 0 0
347 1 0 0 1 1 0.29135727118535326 0.7884569207676363 1.0057855973135414 0 0 0
348 1 0 0 1 1 1.137728659113434 1.2437205149348847 1.1204767547130794 0 0 0
349 1 0 0 1 1 1.0728047339960771 1.1589402764756804 1.1897164019632978 0 0 0
350 1 0 0 1 1 0.6165059655574935 0.02504878938168469 0.1813724730880068 0 0 0
351 1 0 0 1 1 0.5781354944398711 0.21211826167515985 0.7549738218237799 0 0 0
352 1 0 0 1 1 0.1801299010319757 1.1128847969376594 0.7267964418967438 0 0 0
353 1 0 0 1 1 0.33322022780639243 0.08330195934097255 0.2837442105250258 0 0 0
354 1 0 0 1 1 0.08777244202568686 1.0838047487210858 0.8277934251523791 0 0 0
355 1 0 0 1 1 0.6758635968797491 1.0512079556892422 1.0391496432253884 0 0 0
356 1 0 0 1 1 1.2223810963097397 0.28644609204270344 0.14113731341750105 0 0 0
357 1 0 0 1 1 0.9234107057944131 0.05623968169056784 0.2795427522209846 0 0 0
358 1 0 0 1 1 0.029441520118266323 0.934577068913022 0.0010681818140774848 0 0 0
359 1 0 0 1 1 0.31403705067210513 0.21143263646009242 0.5709602812394778 0 0 0
360 1 0 0 1 1 0.5707307925730384 0.4934779254096448 1.08314195186521 0 0 0
361 1 0 0 1 1 1.0274561174982166 1.2369779833321106 1.1916425974260807 0 0 0
362 1 0 0 1 1 0.2321258112832352 0.6229397628165128 1.0645900806544006 0 0 0
363 1 0 0 1 1 0.4266560014612897 0.5967216081894674 0.12851167721242612 0 0 0
364 1 0 0 1 1 0.39107938943850123 1.12310204124804 1.0987587807587695 0 0 0
365 1 0 0 1 1 0.17599990352994513 0.9956745245277324 0.030349033933852732 0 0 0
366 1 0 0 1 1 1.0681091687353248 0.35568003249647223 0.8488454669449399 0 0 0
367 1 0 0 1 1 0.45971498398912125 0.5938579498169926 1.135926356928441 0 0 0
368 1 0 0 1 1 1.1905328892366867 0.4800760205600922 0.10327402672064448 0 0 0
369 1 0 0 1 1 0.8152813886357337 0.792881194065904 1.0292049775028254 0 0 0
370 1 0 0 1 1 0.3919628833143895 0.8529310145632023 1.0897771098023694 0 0 0
371 1 0 0 1 1 0.4115821266981637 0.4942394932009676 0.02368027178365249 0 0 0
372 1 0 0 1 1 1.1191971509632985 0.9851623596417071 1.0012618296830937 0 0 0
373 1 0 0 1 1 0.7020290878726105 1.1021686594008615 0.789382995899073 0 0 0
374 1 0 0 1 1 0.19135668273855402 0.8132474551688359 0.6264297630737323 0 0 0
375 1 0 0 1 1 0.504735058684099 0.0337023614910281 0.7310381769126454 0 0 0
376 1 0 0 1 1 1.0684818459526741 0.31966077501011386 0.23528884325747315 0 0 0
377 1 0 0 1 1 0.8673340582491526 1.256890759754406 0.7266766549074651 0 0 0
378 1 0 0 1 1 0.8398023987908778 0.9233155559495068 0.9768983381398527 0 0 0
379 1 0 0 1 1 0.6991679364541019 0.8917966645319648 0.40573123935847616 0 0 0
380 1 0 0 1 1 0.43221786687152386 0.8408358657755193 0.6539004682901711 0 0 0
381 1 0 0 1 1 1.0737733698486862 1.0598294026473165 1.048887929668307 0 0 0
382 1 0 0 1 1 1.1040248561092079 0.48845482570382887 1.0746155391728396 0 0 0
383 1 0 0 1 1 0.09511663495329556 1.0453923933433074 0.3109141370016839 0 0 0
384 1 0 0 1 1 0.6413066732752797 1.0765969369053814 0.6385210285175579 0 0 0
385 1 0 0 1 1 0.8753443399864647 1.0741435800074286 0.9823462911524452 0 0 0